# vtk DataFile Version 3.0
LBM - Lid driven cavity
ASCII
DATASET UNSTRUCTURED_GRID
POINTS 12 double
99.521015 99.648076 100.000000 
 99.808530 99.646778 100.000000 
 99.748078 100.751925 100.000000 
 99.712285 100.370156 100.000000 
 99.520436 100.151377 100.000000 
 99.844856 100.031688 100.000000 
 100.191470 99.646778 100.000000 
 100.478985 99.648076 100.000000 
 100.251922 100.751925 100.000000 
 100.287715 100.370156 100.000000 
 100.155144 100.031688 100.000000 
 100.479564 100.151377 100.000000 
 
POINT_DATA 12
SCALARS mass double 1
LOOKUP_TABLE default
1.000000
1.000000
1.000000
1.000000
1.000000
1.000000
1.000000
1.000000
1.000000
1.000000
1.000000
1.000000

VECTORS force double
-26160.971611 85.834237 0.000000 
 25459.787626 -682.858236 0.000000 
 39.911220 617.040641 0.000000 
 14237.574973 17366.238974 0.000000 
 -16982.740691 -15984.717025 0.000000 
 -6977.362534 -1401.538591 0.000000 
 -25459.787626 -682.858236 0.000000 
 26160.971611 85.834237 0.000000 
 -39.911220 617.040641 0.000000 
 -14237.574973 17366.238974 0.000000 
 6977.362534 -1401.538591 0.000000 
 16982.740691 -15984.717025 0.000000 
 
VECTORS velocity double
-393.152971 -306.155680 0.000000 
 -214.617196 -308.969347 0.000000 
 -306.195789 306.237450 0.000000 
 -649.778506 836.016686 0.000000 
 -397.298056 301.295764 0.000000 
 132.455318 -828.424873 0.000000 
 214.617196 -308.969347 0.000000 
 393.152971 -306.155680 0.000000 
 306.195789 306.237450 0.000000 
 649.778506 836.016686 0.000000 
 -132.455318 -828.424873 0.000000 
 397.298056 301.295764 0.000000 
 

