# vtk DataFile Version 3.0
LBM - Lid driven cavity
ASCII
DATASET UNSTRUCTURED_GRID
POINTS 12 double
99.481569 99.617460 100.000000 
 99.787195 99.615878 100.000000 
 99.858066 99.948839 100.000000 
 99.717458 100.782552 100.000000 
 99.647378 100.453845 100.000000 
 99.480621 100.181427 100.000000 
 100.212805 99.615878 100.000000 
 100.518431 99.617460 100.000000 
 100.141934 99.948839 100.000000 
 100.282542 100.782552 100.000000 
 100.352622 100.453845 100.000000 
 100.519379 100.181427 100.000000 
 
POINT_DATA 12
SCALARS mass double 1
LOOKUP_TABLE default
1.000000
1.000000
1.000000
1.000000
1.000000
1.000000
1.000000
1.000000
1.000000
1.000000
1.000000
1.000000

VECTORS force double
-11830.353063 44.714764 0.000000 
 11031.306971 -2925.712357 0.000000 
 -30193.799046 2821.452983 0.000000 
 712.348459 3360.043490 0.000000 
 2758.626163 2327.514923 0.000000 
 -3558.078492 -5628.013803 0.000000 
 -11031.306971 -2925.712357 0.000000 
 11830.353063 44.714764 0.000000 
 30193.799046 2821.452983 0.000000 
 -712.348459 3360.043490 0.000000 
 -2758.626163 2327.514923 0.000000 
 3558.078492 -5628.013803 0.000000 
 
VECTORS velocity double
-395.052537 -306.149153 0.000000 
 -212.792641 -309.149776 0.000000 
 130.596760 -828.353877 0.000000 
 -306.158176 306.436304 0.000000 
 -648.928696 837.001374 0.000000 
 -398.325097 300.215128 0.000000 
 212.792641 -309.149776 0.000000 
 395.052537 -306.149153 0.000000 
 -130.596760 -828.353877 0.000000 
 306.158176 306.436304 0.000000 
 648.928696 837.001374 0.000000 
 398.325097 300.215128 0.000000 
 

