# vtk DataFile Version 3.0
LBM - Lid driven cavity
ASCII
DATASET UNSTRUCTURED_GRID
POINTS 12 double
99.362737 99.525617 100.000000 
 99.723213 99.522242 100.000000 
 99.891352 99.701221 100.000000 
 99.626205 100.875609 100.000000 
 99.452172 100.703938 100.000000 
 99.361056 100.271373 100.000000 
 100.276787 99.522242 100.000000 
 100.637263 99.525617 100.000000 
 100.108648 99.701221 100.000000 
 100.373795 100.875609 100.000000 
 100.547828 100.703938 100.000000 
 100.638944 100.271373 100.000000 
 
POINT_DATA 12
SCALARS mass double 1
LOOKUP_TABLE default
1.000000
1.000000
1.000000
1.000000
1.000000
1.000000
1.000000
1.000000
1.000000
1.000000
1.000000
1.000000

VECTORS force double
-1385.223394 11.313400 0.000000 
 -137891.736325 -148171.431446 0.000000 
 -857592.375092 148159.957344 0.000000 
 153464.080079 151381.790402 0.000000 
 -153443.956604 -151286.274987 0.000000 
 -20.276164 -95.354714 0.000000 
 137891.736325 -148171.431446 0.000000 
 1385.223394 11.313400 0.000000 
 857592.375092 148159.957344 0.000000 
 -153464.080079 151381.790402 0.000000 
 153443.956604 -151286.274987 0.000000 
 20.276164 -95.354714 0.000000 
 
VECTORS velocity double
-396.539142 -306.142555 0.000000 
 -222.250181 -323.762054 0.000000 
 41.944018 -813.751731 0.000000 
 -293.286635 323.163346 0.000000 
 -661.548585 820.752217 0.000000 
 -398.581739 299.740777 0.000000 
 222.250181 -323.762054 0.000000 
 396.539142 -306.142555 0.000000 
 -41.944018 -813.751731 0.000000 
 293.286635 323.163346 0.000000 
 661.548585 820.752217 0.000000 
 398.581739 299.740777 0.000000 
 

