# vtk DataFile Version 3.0
LBM - Lid driven cavity
ASCII
DATASET UNSTRUCTURED_GRID
POINTS 12 double
99.442004 99.586846 100.000000 
 99.765971 99.584948 100.000000 
 99.870975 99.866018 100.000000 
 99.686846 100.813212 100.000000 
 99.582499 100.537557 100.000000 
 99.440771 100.211420 100.000000 
 100.234029 99.584948 100.000000 
 100.557996 99.586846 100.000000 
 100.129025 99.866018 100.000000 
 100.313154 100.813212 100.000000 
 100.417501 100.537557 100.000000 
 100.559229 100.211420 100.000000 
 
POINT_DATA 12
SCALARS mass double 1
LOOKUP_TABLE default
1.000000
1.000000
1.000000
1.000000
1.000000
1.000000
1.000000
1.000000
1.000000
1.000000
1.000000
1.000000

VECTORS force double
-5550.188414 23.496994 0.000000 
 188.693889 -14138.825080 0.000000 
 -101434.479978 14110.542871 0.000000 
 6702.824753 17709.817425 0.000000 
 -6046.504202 -16196.595513 0.000000 
 -661.883970 -1508.436697 0.000000 
 -188.693889 -14138.825080 0.000000 
 5550.188414 23.496994 0.000000 
 101434.479978 14110.542871 0.000000 
 -6702.824753 17709.817425 0.000000 
 6046.504202 -16196.595513 0.000000 
 661.883970 -1508.436697 0.000000 
 
VECTORS velocity double
-395.921564 -306.145742 0.000000 
 -212.231641 -310.003003 0.000000 
 124.015346 -827.507277 0.000000 
 -305.787418 307.489797 0.000000 
 -649.093090 836.307920 0.000000 
 -398.536095 299.858305 0.000000 
 212.231641 -310.003003 0.000000 
 395.921564 -306.145742 0.000000 
 -124.015346 -827.507277 0.000000 
 305.787418 307.489797 0.000000 
 649.093090 836.307920 0.000000 
 398.536095 299.858305 0.000000 
 

