# vtk DataFile Version 3.0
LBM - Lid driven cavity
ASCII
DATASET UNSTRUCTURED_GRID
POINTS 12 double
99.402384 99.556231 100.000000 
 99.744749 99.553877 100.000000 
 99.882869 99.783337 100.000000 
 99.656301 100.844050 100.000000 
 99.517560 100.621106 100.000000 
 99.400914 100.241398 100.000000 
 100.255251 99.553877 100.000000 
 100.597616 99.556231 100.000000 
 100.117131 99.783337 100.000000 
 100.343699 100.844050 100.000000 
 100.482440 100.621106 100.000000 
 100.599086 100.241398 100.000000 
 
POINT_DATA 12
SCALARS mass double 1
LOOKUP_TABLE default
1.000000
1.000000
1.000000
1.000000
1.000000
1.000000
1.000000
1.000000
1.000000
1.000000
1.000000
1.000000

VECTORS force double
-2708.076369 14.471150 0.000000 
 -31333.878173 -56435.384525 0.000000 
 -341199.846227 56420.211399 0.000000 
 44924.375199 72189.682912 0.000000 
 -44809.725673 -71815.590848 0.000000 
 -115.358301 -373.390088 0.000000 
 31333.878173 -56435.384525 0.000000 
 2708.076369 14.471150 0.000000 
 341199.846227 56420.211399 0.000000 
 -44924.375199 72189.682912 0.000000 
 44809.725673 -71815.590848 0.000000 
 115.358301 -373.390088 0.000000 
 
VECTORS velocity double
-396.334477 -306.143844 0.000000 
 -213.788900 -313.531713 0.000000 
 101.883630 -823.980740 0.000000 
 -303.206058 311.984772 0.000000 
 -651.635901 831.907310 0.000000 
 -398.574957 299.764214 0.000000 
 213.788900 -313.531713 0.000000 
 396.334477 -306.143844 0.000000 
 -101.883630 -823.980740 0.000000 
 303.206058 311.984772 0.000000 
 651.635901 831.907310 0.000000 
 398.574957 299.764214 0.000000 
 

