# vtk DataFile Version 3.0
LBM - Lid driven cavity
ASCII
DATASET UNSTRUCTURED_GRID
POINTS 12 double
99.700000 99.800000 100.000000 
 99.900000 99.800000 100.000000 
 99.900000 100.600000 100.000000 
 99.900000 100.400000 100.000000 
 99.700000 100.000000 100.000000 
 99.900000 100.000000 100.000000 
 100.100000 99.800000 100.000000 
 100.300000 99.800000 100.000000 
 100.100000 100.600000 100.000000 
 100.100000 100.400000 100.000000 
 100.100000 100.000000 100.000000 
 100.300000 100.000000 100.000000 
 
POINT_DATA 12
SCALARS mass double 1
LOOKUP_TABLE default
1.000000
1.000000
1.000000
1.000000
1.000000
1.000000
1.000000
1.000000
1.000000
1.000000
1.000000
1.000000

VECTORS force double
-2952910.694984 -2952514.719694 0.000000 
 -431.885060 -2975398.455928 0.000000 
 -2952476.164440 2952479.793595 0.000000 
 -2952478.909226 -2951963.404092 0.000000 
 -2952950.783753 2952435.278619 0.000000 
 -469.229043 2974961.507501 0.000000 
 431.885060 -2975398.455928 0.000000 
 2952910.694984 -2952514.719694 0.000000 
 2952476.164440 2952479.793595 0.000000 
 2952478.909226 -2951963.404092 0.000000 
 469.229043 2974961.507501 0.000000 
 2952950.783753 2952435.278619 0.000000 
 
VECTORS velocity double
-147.645535 -147.625736 0.000000 
 -0.021594 -148.769923 0.000000 
 -147.623808 147.623990 0.000000 
 -147.623945 -147.598170 0.000000 
 -147.647539 147.621764 0.000000 
 -0.023461 148.748075 0.000000 
 0.021594 -148.769923 0.000000 
 147.645535 -147.625736 0.000000 
 147.623808 147.623990 0.000000 
 147.623945 -147.598170 0.000000 
 0.023461 148.748075 0.000000 
 147.647539 147.621764 0.000000 
 

