# vtk DataFile Version 3.0
LBM - Lid driven cavity
ASCII
DATASET UNSTRUCTURED_GRID
POINTS 12 double
99.636034 99.739923 100.000000 
 99.875587 99.739440 100.000000 
 99.839928 100.660072 100.000000 
 99.839927 100.339971 100.000000 
 99.636031 100.060072 100.000000 
 99.875589 100.060522 100.000000 
 100.124413 99.739440 100.000000 
 100.363966 99.739923 100.000000 
 100.160072 100.660072 100.000000 
 100.160073 100.339971 100.000000 
 100.124411 100.060522 100.000000 
 100.363969 100.060072 100.000000 
 
POINT_DATA 12
SCALARS mass double 1
LOOKUP_TABLE default
1.000000
1.000000
1.000000
1.000000
1.000000
1.000000
1.000000
1.000000
1.000000
1.000000
1.000000
1.000000

VECTORS force double
-280734.090220 -6183.588430 0.000000 
 109284.457136 -7305.766368 0.000000 
 -6514.301351 6528.546880 0.000000 
 -9723.782257 29430.824518 0.000000 
 -282038.715251 4337.306245 0.000000 
 113237.238605 -26807.322846 0.000000 
 -109284.457136 -7305.766368 0.000000 
 280734.090220 -6183.588430 0.000000 
 6514.301351 6528.546880 0.000000 
 9723.782257 29430.824518 0.000000 
 -113237.238605 -26807.322846 0.000000 
 282038.715251 4337.306245 0.000000 
 
VECTORS velocity double
-358.407370 -305.830500 0.000000 
 -238.617935 -308.423261 0.000000 
 -305.795578 305.799574 0.000000 
 -305.973219 -303.619504 0.000000 
 -358.497895 305.694683 0.000000 
 -238.400344 306.379009 0.000000 
 238.617935 -308.423261 0.000000 
 358.407370 -305.830500 0.000000 
 305.795578 305.799574 0.000000 
 305.973219 -303.619504 0.000000 
 238.400344 306.379009 0.000000 
 358.497895 305.694683 0.000000 
 

