# vtk DataFile Version 3.0
LBM - Lid driven cavity
ASCII
DATASET UNSTRUCTURED_GRID
POINTS 12 double
99.598789 99.709309 100.000000 
 99.852272 99.708561 100.000000 
 99.809316 100.690685 100.000000 
 99.809281 100.309756 100.000000 
 99.598771 100.090663 100.000000 
 99.852315 100.091025 100.000000 
 100.147728 99.708561 100.000000 
 100.401211 99.709309 100.000000 
 100.190684 100.690685 100.000000 
 100.190719 100.309756 100.000000 
 100.147685 100.091025 100.000000 
 100.401229 100.090663 100.000000 
 
POINT_DATA 12
SCALARS mass double 1
LOOKUP_TABLE default
1.000000
1.000000
1.000000
1.000000
1.000000
1.000000
1.000000
1.000000
1.000000
1.000000
1.000000
1.000000

VECTORS force double
-134563.985804 -319.204443 0.000000 
 116181.295215 -1112.647456 0.000000 
 -668.962230 681.848920 0.000000 
 -130076.965250 709977.435048 0.000000 
 -142984.514549 -8676.717844 0.000000 
 253395.488198 -700550.714225 0.000000 
 -116181.295215 -1112.647456 0.000000 
 134563.985804 -319.204443 0.000000 
 668.962230 681.848920 0.000000 
 130076.965250 709977.435048 0.000000 
 -253395.488198 -700550.714225 0.000000 
 142984.514549 -8676.717844 0.000000 
 
VECTORS velocity double
-379.172274 -306.155640 0.000000 
 -227.344648 -308.844181 0.000000 
 -306.154741 306.160093 0.000000 
 -312.963256 -266.649091 0.000000 
 -379.749057 305.477712 0.000000 
 -220.068708 270.011107 0.000000 
 227.344648 -308.844181 0.000000 
 379.172274 -306.155640 0.000000 
 306.154741 306.160093 0.000000 
 312.963256 -266.649091 0.000000 
 220.068708 270.011107 0.000000 
 379.749057 305.477712 0.000000 
 

