# vtk DataFile Version 3.0
LBM - Lid driven cavity
ASCII
DATASET UNSTRUCTURED_GRID
POINTS 12 double
99.670471 99.770475 100.000000 
 99.899996 99.770246 100.000000 
 99.870475 100.629525 100.000000 
 99.870475 100.370480 100.000000 
 99.670470 100.029524 100.000000 
 99.899995 100.029750 100.000000 
 100.100004 99.770246 100.000000 
 100.329529 99.770475 100.000000 
 100.129525 100.629525 100.000000 
 100.129525 100.370480 100.000000 
 100.100005 100.029750 100.000000 
 100.329530 100.029524 100.000000 
 
POINT_DATA 12
SCALARS mass double 1
LOOKUP_TABLE default
1.000000
1.000000
1.000000
1.000000
1.000000
1.000000
1.000000
1.000000
1.000000
1.000000
1.000000
1.000000

VECTORS force double
-490795.964852 -102698.489304 0.000000 
 -2440389.697658 -105181.267900 0.000000 
 -102222.463343 102251.668554 0.000000 
 -102391.384834 -98947.052522 0.000000 
 -491008.812581 102342.894664 0.000000 
 -2440152.834563 102232.246509 0.000000 
 2440389.697658 -105181.267900 0.000000 
 490795.964852 -102698.489304 0.000000 
 102222.463343 102251.668554 0.000000 
 102391.384834 -98947.052522 0.000000 
 2440152.834563 102232.246509 0.000000 
 491008.812581 102342.894664 0.000000 
 
VECTORS velocity double
-319.830868 -300.386396 0.000000 
 -122.062673 -302.798909 0.000000 
 -300.358740 300.360563 0.000000 
 -300.367460 -300.143693 0.000000 
 -319.845519 300.360673 0.000000 
 -122.054565 302.607763 0.000000 
 122.062673 -302.798909 0.000000 
 319.830868 -300.386396 0.000000 
 300.358740 300.360563 0.000000 
 300.367460 -300.143693 0.000000 
 122.054565 302.607763 0.000000 
 319.845519 300.360673 0.000000 
 

