# vtk DataFile Version 3.0
LBM - Lid driven cavity
ASCII
DATASET UNSTRUCTURED_GRID
POINTS 12 double
99.560199 99.678692 100.000000 
 99.830119 99.677671 100.000000 
 99.778697 100.721304 100.000000 
 99.777334 100.286641 100.000000 
 99.560081 100.121168 100.000000 
 99.831575 100.114524 100.000000 
 100.169881 99.677671 100.000000 
 100.439801 99.678692 100.000000 
 100.221303 100.721304 100.000000 
 100.222666 100.286641 100.000000 
 100.168425 100.114524 100.000000 
 100.439919 100.121168 100.000000 
 
POINT_DATA 12
SCALARS mass double 1
LOOKUP_TABLE default
1.000000
1.000000
1.000000
1.000000
1.000000
1.000000
1.000000
1.000000
1.000000
1.000000
1.000000
1.000000

VECTORS force double
-59444.487145 116.281045 0.000000 
 56453.976841 -353.906435 0.000000 
 -95.957139 124.123421 0.000000 
 -3310232.805825 10662985.938435 0.000000 
 -95506.359804 -29488.758890 0.000000 
 3402031.196656 -10633383.677576 0.000000 
 -56453.976841 -353.906435 0.000000 
 59444.487145 116.281045 0.000000 
 95.957139 124.123421 0.000000 
 3310232.805825 10662985.938435 0.000000 
 -3402031.196656 -10633383.677576 0.000000 
 95506.359804 -29488.758890 0.000000 
 
VECTORS velocity double
-388.872698 -306.165786 0.000000 
 -218.712884 -308.917509 0.000000 
 -306.192987 306.200392 0.000000 
 -484.978744 301.999077 0.000000 
 -391.673601 303.569438 0.000000 
 -37.297374 -296.685612 0.000000 
 218.712884 -308.917509 0.000000 
 388.872698 -306.165786 0.000000 
 306.192987 306.200392 0.000000 
 484.978744 301.999077 0.000000 
 37.297374 -296.685612 0.000000 
 391.673601 303.569438 0.000000 
 

